/scratch/petragli/499628.lcmdlc1.epfl.ch/qchem14267
Sun Sep  8 17:36:13 2013 - Completed H0

Sun Sep  8 17:36:26 2013 - Completed O0

Sun Sep  8 17:36:26 2013 - Completed C0

finished running SCF for atomic densities

Parallel job running on 8 processors.
Parallel job running on 8 processors.
Parallel job running on 8 processors.
Parallel job running on 8 processors.
Parallel job running on 8 processors.
Parallel job running on 8 processors.
Parallel job running on 8 processors.
Parallel job running on 8 processors.
                  Welcome to Q-Chem
     A Quantum Leap Into The Future Of Chemistry

 Y. Shao, L. Fusti-Molnar, Y. Jung, J. Kussmann, C. Ochsenfeld,
 S. T. Brown, A. T. B. Gilbert, L. V. Slipchenko,S. V. Levchenko,
 D. P. O'Neill, R. A. DiStasio Jr., R. C. Lochan, T. Wang,
 G. J. O. Beran, N. A. Besley, J. M. Herbert, C. Y. Lin,
 T. Van Voorhis, S. H. Chien, A. Sodt, R. P. Steele, 
 V. A. Rassolov, P. E. Maslen, P. P. Korambath, R. D. Adamson,
 B. Austin, J. Baker, E. F. C. Byrd, H. Dachsel, R. J. Doerksen,
 A. Dreuw, B. D. Dunietz, A. D. Dutoi, T. R. Furlani,
 S. R. Gwaltney, A. Heyden, S. Hirata, C.-P. Hsu, G. Kedziora,
 R. Z. Khaliullin, P. Klunzinger, A. M. Lee, M. S. Lee, W. Liang,
 I. Lotan, N. Nair, B. Peters, E. I. Proynov, P. A. Pieniazek, 
 Y. M. Rhee, J. Ritchie, E. Rosta, C. D. Sherrill, 
 A. C. Simmonett, J. E. Subotnik, H. L. Woodcock III,
 W. Zhang, A. T. Bell, A. K. Chakraborty, D. M. Chipman,
 F. J. Keil, A. Warshel, W. J. Hehre, H. F. Schaefer III,
 J. Kong, A. I. Krylov, P. M. W. Gill, M. Head-Gordon,

 Additional authors for Version 3.1: 
 Z. Gan, Y. Zhao, N. E. Schultz, D. Truhlar, E. Epifanovsky and M. Oana.

 Additional authors for Version 3.2: 
 R. Baer, B. R. Brooks, D. Casanova, J.-D. Chai, C.-L. Cheng, 
 C. Cramer, D. Crittenden, A. Ghysels, G. Hawkins, E. G. Hohenstein, 
 C. Kelley, W. Kurlancheek, D. Liotard, E. Livshits, P. Manohar, 
 A. Marenich, D. Neuhauser, R. Olson, M. A. Rohrdanz, K. S. Thanthiriwatte, 
 A. J. W. Thom, V. Vanovschi, C. F. Williams, Q. Wu and Z.-Q. You. 
 Additional authors for Version 4.0: 
 E. Sundstrom, J. Parkhill, K. Lawler, D. Lambrecht, M. Goldey, R. Olivares-Amaya,
 Y. Bernard, L. Vogt, M. Watson, J. Liu, S. Yeganeh, B. Kaduk, O. Vydrov, X. Xu, 
 I. Kaliman, C. Zhang, N. Russ, I.Y. Zhang, W.A. Goddard III, F. Liu, R. King ,
 A. Landau, M. Wormit, A. Dreuw, M. Diedenhofen, A. Klamt, A.W. Lange, D. Ghosh,
 D. Kosenkov, A. Landau, D. Zuev, J. Deng, S.P. Mao, Y.C. Su, D. Small
 
 Q-Chem, Version 4.0, Q-Chem, Inc., Pittsburgh, PA (2007).


 Intel X86 EM64T Linux Version

 Q-chem begins on Sun Sep  8 17:36:27 2013  

Host: lcmd59
0
 Parallel job on  8  processors

theFileMan(): MAXOPENFILES=974 MAX_SUB_FILE_NUM=16
Maximum size of a physical file is 2.0 GB, maximum size of a tmp-file is 32.0 GB

In read_wb97x_ddsc()
Using CC_AB1 = 1.000000
Using CC_AB2 = 1.794130
Using CC_AB3 = -12.047700
Using CC_AB4 = 14.084700
Using CC_AB5 = -8.508090
Using CC_AA1 = 1.000000
Using CC_AA2 = -6.905390
Using CC_AA3 = 31.334300
Using CC_AA4 = -51.053300
Using CC_AA5 = 26.442300
Using TTA = 19.297100
Using TTB = 1.432200
Using CX_AA1 = 0.779640
Using CX_AA2 = 0.661160
Using CX_AA3 = 0.574541
Using CX_AA4 = -5.256710
Using CX_AA5 = 11.638600
Using CXHF = 0.222036
Using OMEGA = 0.200000
Writing file FILE_WB97X_DDSC
ending read_wb97x_ddsc()
Finally everything over in PARseQInput

--------------------------------------------------------------
User input:
--------------------------------------------------------------
$molecule
1 2
O 1.176237 0.000000 -0.200000
C 0.369891 1.083017 -0.200000
H 0.860605 2.049077 -0.200000
C -0.991037 -0.691793 -0.200000
H -1.838676 -1.365016 -0.200000
C -0.991037 0.691793 -0.200000
H -1.838676 1.365016 -0.200000
C 0.369891 -1.083017 -0.200000
H 0.860605 -2.049077 -0.200000
O -1.161250 0.000000 2.900000
C -0.347359 1.094894 2.900000
H -0.850457 2.049779 2.900000
C 0.959964 -0.717891 2.900000
H 1.819840 -1.373246 2.900000
C 0.959964 0.717891 2.900000
H 1.819840 1.373246 2.900000
C -0.347359 -1.094894 2.900000
H -0.850457 -2.049779 2.900000
$end
$rem
  JOBTYPE                   SP                        
  EXCHANGE                  OMEGAB97X-DDSC            
  BASIS                     DEF2-QZVP                 
  SYMMETRY                  FALSE                     
  MAX_SCF_CYCLES            100                       
  SCF_ALGORITHM             DIIS                      
  MEM_TOTAL                 1800                      
  MEM_STATIC                400                       
  SCF_GUESS                 SAD                       
  THRESH                    10                        
  unrestricted              TRUE
$end

$wb97x_ddsc
  CC_AB           1.000000    1.794130  -12.047700   14.084700   -8.508090
  CC_AA           1.000000   -6.905390   31.334300  -51.053300   26.442300
  TTA            19.2971
  TTB             1.4322
  CX_AA           0.779640    0.661160    0.574541   -5.256710   11.638600
  CXHF            0.222036
  OMEGA           0.200000
$end

--------------------------------------------------------------
 ----------------------------------------------------
       Standard Nuclear Orientation (Angstroms)
    I     Atom         X            Y            Z
 ----------------------------------------------------
    1      O       1.550000     1.176237     0.000000
    2      C       1.550000     0.369891    -1.083017
    3      H       1.550000     0.860605    -2.049077
    4      C       1.550000    -0.991037     0.691793
    5      H       1.550001    -1.838676     1.365016
    6      C       1.550000    -0.991037    -0.691793
    7      H       1.550001    -1.838676    -1.365016
    8      C       1.550000     0.369891     1.083017
    9      H       1.550000     0.860605     2.049077
   10      O      -1.550000    -1.161251     0.000000
   11      C      -1.550000    -0.347360    -1.094894
   12      H      -1.550000    -0.850458    -2.049779
   13      C      -1.550000     0.959963     0.717891
   14      H      -1.550001     1.819839     1.373246
   15      C      -1.550000     0.959963    -0.717891
   16      H      -1.550001     1.819839    -1.373246
   17      C      -1.550000    -0.347360     1.094894
   18      H      -1.550000    -0.850458     2.049779
 ----------------------------------------------------
 Molecular Point Group                 Cs    NOp =  2
 Largest Abelian Subgroup              Cs    NOp =  2
 Nuclear Repulsion Energy =   512.8980463317 hartrees
 There are       36 alpha and       35 beta electrons
 Requested basis set is def2-QZVP
 There are 240 shells and 720 basis functions

Total QAlloc Memory Limit   1800 MB
Mega-Array Size       392 MB
MEM_STATIC part       400 MB
 A cutoff of  1.0D-10 yielded  22848 shell pairs
 There are    204908 function pairs (    282487 Cartesian)
 Smallest overlap matrix eigenvalue = 1.73E-05

  Scale SEOQF with 1.000000e-01/1.000000e-01/1.000000e-01

 Standard Electronic Orientation quadrupole field applied
 Nucleus-field energy     =     0.0000000038 hartrees
 Guess from superposition of atomic densities
 Warning:  Energy on first SCF cycle will be non-variational
 Special in SuperimposeAtomicMatrices IBasis 890030
 Long-range K will be added via erf
 Coulomb attenuation parameter = 0.2 bohr**(-1)
 An unrestricted hybrid HF-DFT SCF calculation will be
 performed using Pulay DIIS extrapolation
 Exchange:     0.2220 Hartree-Fock + 1.0000 wB97X-dDsC + LR-HF
 Correlation:  1.0000 wB97X-dDsC
 Using SG-1 standard quadrature grid
 SCF converges when DIIS error is below 1.0E-05
 Requested basis set is def2-QZVP
 There are 240 shells and 720 basis functions
 A cutoff of  1.0D-10 yielded  22848 shell pairs
 There are    204908 function pairs (    282487 Cartesian)
 Warning!  Inaccurate integrated density:
   Number of electrons =    71
   Numerical integral  =    72.000484690701
   Relative error      =     1.4091333672 %
 ---------------------------------------
  Cycle       Energy         DIIS Error
 ---------------------------------------
    1    -462.9378420224      1.57E-02
    2    -459.7909986401      1.13E-03
    3    -459.8248088736      9.32E-04
    4    -459.8714509245      1.31E-04
    5    -459.8727197146      4.55E-05
    6    -459.8729046767      2.68E-05
    7    -459.8729702416      5.40E-06 Convergence criterion met
 ---------------------------------------
 <S^2> = 0.7604
 SCF time:  CPU 4529.60 s  wall 4530.11 s
 SCF   energy in the final basis set = -459.8729702416
 Total energy in the final basis set = -459.8729702416
 Analysis of SCF Wavefunction
 
 --------------------------------------------------------------
             Orbital Energies (a.u.) and Symmetries
 --------------------------------------------------------------
 
 Alpha MOs, Unrestricted
 -- Occupied --                  
-19.526 -19.496 -10.566 -10.566 -10.533 -10.532 -10.494 -10.494
  1 A'    2 A'    1 A"    3 A'    2 A"    4 A'    5 A'    3 A"                 
-10.472 -10.471  -1.425  -1.391  -1.104  -1.082  -1.048  -1.028
  6 A'    4 A"    7 A'    8 A'    9 A'   10 A'    5 A"    6 A"                 
 -0.887  -0.869  -0.864  -0.841  -0.829  -0.807  -0.759  -0.729
  7 A"    8 A"   11 A'   12 A'   13 A'   14 A'   15 A'    9 A"                 
 -0.718  -0.705  -0.688  -0.678  -0.671  -0.656  -0.655  -0.636
 16 A'   10 A"   17 A'   11 A"   12 A"   18 A'   19 A'   20 A'                 
 -0.565  -0.540  -0.534  -0.482
 21 A'   22 A'   13 A"   14 A"                                                 
 -- Virtual --                   
 -0.139  -0.105  -0.079  -0.045  -0.031  -0.028  -0.017  -0.014
 23 A'   24 A'   15 A"   25 A'   16 A"   17 A"   26 A'   27 A'                 
 -0.007  -0.005   0.018   0.023   0.027   0.034   0.039   0.047
 18 A"   28 A'   19 A"   29 A'   30 A'   31 A'   20 A"   32 A'                 
  0.052   0.069   0.070   0.083   0.090   0.094   0.111   0.117
 21 A"   22 A"   33 A'   34 A'   23 A"   35 A'   36 A'   24 A"                 
  0.123   0.131   0.134   0.154   0.154   0.172   0.176   0.190
 25 A"   37 A'   26 A"   27 A"   38 A'   39 A'   28 A"   29 A"                 
  0.199   0.205   0.210   0.211   0.213   0.221   0.225   0.231
 40 A'   30 A"   41 A'   31 A"   42 A'   32 A"   43 A'   44 A'                 
  0.234   0.235   0.250   0.254   0.256   0.259   0.275   0.283
 45 A'   33 A"   46 A'   34 A"   47 A'   35 A"   36 A"   48 A'                 
  0.288   0.304   0.312   0.325   0.336   0.342   0.346   0.360
 49 A'   37 A"   50 A'   51 A'   38 A"   52 A'   39 A"   40 A"                 
  0.365   0.373   0.374   0.390   0.405   0.419   0.428   0.433
 53 A'   41 A"   54 A'   55 A'   42 A"   43 A"   56 A'   57 A'                 
  0.436   0.442   0.442   0.476   0.500   0.508   0.510   0.515
 44 A"   58 A'   45 A"   46 A"   47 A"   59 A'   48 A"   49 A"                 
  0.527   0.548   0.552   0.562   0.565   0.568   0.571   0.579
 60 A'   50 A"   61 A'   62 A'   51 A"   63 A'   52 A"   64 A'                 
  0.590   0.599   0.610   0.619   0.642   0.646   0.659   0.664
 65 A'   66 A'   67 A'   68 A'   53 A"   69 A'   70 A'   71 A'                 
  0.668   0.683   0.687   0.696   0.697   0.706   0.715   0.717
 54 A"   55 A"   56 A"   72 A'   73 A'   57 A"   74 A'   58 A"                 
  0.738   0.740   0.743   0.752   0.779   0.785   0.789   0.792
 75 A'   59 A"   76 A'   60 A"   61 A"   62 A"   77 A'   63 A"                 
  0.792   0.804   0.816   0.820   0.823   0.837   0.844   0.846
 78 A'   79 A'   64 A"   80 A'   65 A"   81 A'   82 A'   66 A"                 
  0.852   0.854   0.856   0.879   0.882   0.892   0.905   0.919
 83 A'   84 A'   67 A"   85 A'   68 A"   69 A"   86 A'   87 A'                 
  0.939   0.947   0.952   0.983   0.987   0.994   1.002   1.008
 70 A"   88 A'   71 A"   72 A"   73 A"   89 A'   90 A'   74 A"                 
  1.019   1.031   1.035   1.037   1.062   1.067   1.078   1.079
 91 A'   75 A"   76 A"   92 A'   93 A'   77 A"   94 A'   78 A"                 
  1.104   1.115   1.127   1.146   1.181   1.189   1.206   1.207
 95 A'   79 A"   80 A"   96 A'   97 A'   81 A"   82 A"   98 A'                 
  1.216   1.223   1.239   1.242   1.248   1.275   1.293   1.300
 83 A"   99 A'  100 A'   84 A"  101 A'   85 A"   86 A"  102 A'                 
  1.312   1.315   1.315   1.321   1.352   1.374   1.397   1.404
103 A'   87 A"   88 A"  104 A'   89 A"  105 A'  106 A'   90 A"                 
  1.436   1.450   1.456   1.464   1.470   1.479   1.486   1.501
107 A'   91 A"  108 A'   92 A"  109 A'   93 A"  110 A'   94 A"                 
  1.514   1.557   1.565   1.576   1.591   1.598   1.602   1.611
111 A'  112 A'   95 A"  113 A'   96 A"   97 A"  114 A'  115 A'                 
  1.616   1.619   1.623   1.638   1.663   1.678   1.706   1.710
116 A'   98 A"   99 A"  117 A'  118 A'  100 A"  119 A'  120 A'                 
  1.731   1.742   1.752   1.754   1.776   1.778   1.783   1.787
121 A'  122 A'  123 A'  101 A"  102 A"  124 A'  125 A'  103 A"                 
  1.807   1.836   1.837   1.866   1.871   1.872   1.880   1.883
126 A'  127 A'  104 A"  128 A'  105 A"  129 A'  106 A"  107 A"                 
  1.906   1.912   1.933   1.945   1.953   1.961   1.962   1.966
108 A"  130 A'  109 A"  131 A'  132 A'  110 A"  133 A'  111 A"                 
  1.975   1.988   1.990   2.005   2.024   2.033   2.044   2.045
134 A'  135 A'  136 A'  112 A"  137 A'  138 A'  139 A'  113 A"                 
  2.056   2.065   2.068   2.071   2.077   2.101   2.108   2.115
114 A"  115 A"  140 A'  116 A"  117 A"  141 A'  118 A"  142 A'                 
  2.131   2.131   2.150   2.150   2.170   2.178   2.184   2.189
143 A'  119 A"  120 A"  144 A'  121 A"  145 A'  122 A"  123 A"                 
  2.192   2.218   2.221   2.232   2.245   2.271   2.272   2.288
146 A'  147 A'  124 A"  148 A'  125 A"  126 A"  149 A'  127 A"                 
  2.293   2.311   2.315   2.322   2.330   2.354   2.377   2.381
150 A'  128 A"  151 A'  129 A"  130 A"  152 A'  153 A'  154 A'                 
  2.387   2.399   2.414   2.414   2.427   2.443   2.453   2.461
131 A"  155 A'  132 A"  156 A'  133 A"  157 A'  134 A"  135 A"                 
  2.466   2.475   2.493   2.511   2.531   2.534   2.536   2.553
158 A'  136 A"  159 A'  137 A"  160 A'  161 A'  138 A"  139 A"                 
  2.553   2.570   2.571   2.574   2.587   2.593   2.611   2.613
162 A'  140 A"  163 A'  141 A"  164 A'  142 A"  165 A'  143 A"                 
  2.614   2.615   2.628   2.634   2.641   2.644   2.661   2.666
166 A'  144 A"  145 A"  167 A'  168 A'  146 A"  169 A'  170 A'                 
  2.692   2.699   2.704   2.714   2.716   2.727   2.755   2.769
147 A"  148 A"  171 A'  172 A'  149 A"  173 A'  174 A'  175 A'                 
  2.775   2.780   2.791   2.798   2.807   2.837   2.840   2.847
150 A"  151 A"  176 A'  152 A"  153 A"  154 A"  155 A"  177 A'                 
  2.868   2.898   2.921   2.947   2.953   2.956   2.964   2.980
178 A'  156 A"  179 A'  157 A"  158 A"  180 A'  159 A"  181 A'                 
  3.022   3.040   3.049   3.056   3.078   3.113   3.120   3.127
160 A"  161 A"  162 A"  182 A'  183 A'  163 A"  184 A'  164 A"                 
  3.143   3.154   3.175   3.197   3.217   3.238   3.249   3.261
185 A'  186 A'  165 A"  166 A"  167 A"  187 A'  188 A'  189 A'                 
  3.274   3.282   3.298   3.323   3.326   3.341   3.363   3.381
168 A"  190 A'  191 A'  192 A'  193 A'  169 A"  170 A"  194 A'                 
  3.395   3.397   3.421   3.422   3.451   3.453   3.457   3.472
171 A"  195 A'  196 A'  172 A"  173 A"  197 A'  174 A"  198 A'                 
  3.505   3.512   3.519   3.528   3.577   3.597   3.613   3.646
199 A'  175 A"  176 A"  200 A'  201 A'  202 A'  177 A"  178 A"                 
  3.677   3.689   3.694   3.700   3.745   3.745   3.788   3.814
179 A"  180 A"  181 A"  203 A'  204 A'  182 A"  205 A'  206 A'                 
  3.815   3.847   3.848   3.871   3.915   3.935   3.965   3.981
183 A"  184 A"  207 A'  208 A'  209 A'  185 A"  210 A'  186 A"                 
  3.996   4.018   4.023   4.051   4.067   4.070   4.134   4.156
211 A'  187 A"  212 A'  213 A'  214 A'  188 A"  189 A"  190 A"                 
  4.178   4.222   4.254   4.272   4.275   4.286   4.374   4.407
191 A"  192 A"  193 A"  215 A'  194 A"  216 A'  217 A'  218 A'                 
  4.439   4.458   4.492   4.492   4.506   4.543   4.549   4.578
219 A'  195 A"  220 A'  196 A"  197 A"  221 A'  198 A"  222 A'                 
  4.620   4.641   4.650   4.672   4.689   4.740   4.859   4.896
199 A"  200 A"  223 A'  201 A"  224 A'  202 A"  203 A"  204 A"                 
  4.996   5.056   5.082   5.137   5.150   5.157   5.165   5.235
225 A'  226 A'  227 A'  228 A'  205 A"  229 A'  206 A"  207 A"                 
  5.289   5.301   5.483   5.532   5.538   5.556   5.570   5.572
208 A"  230 A'  231 A'  232 A'  209 A"  233 A'  234 A'  210 A"                 
  5.604   5.617   5.637   5.641   5.653   5.666   5.675   5.701
235 A'  236 A'  211 A"  237 A'  238 A'  239 A'  212 A"  240 A'                 
  5.710   5.731   5.738   5.777   5.786   5.800   5.801   5.810
241 A'  242 A'  213 A"  243 A'  214 A"  215 A"  244 A'  216 A"                 
  5.812   5.828   5.835   5.841   5.865   5.873   5.897   5.924
217 A"  245 A'  246 A'  218 A"  247 A'  248 A'  249 A'  219 A"                 
  5.933   5.944   5.946   5.955   5.960   5.974   5.979   6.001
250 A'  251 A'  220 A"  221 A"  252 A'  222 A"  253 A'  223 A"                 
  6.020   6.023   6.027   6.070   6.076   6.086   6.111   6.120
254 A'  224 A"  225 A"  226 A"  255 A'  227 A"  256 A'  228 A"                 
  6.132   6.139   6.142   6.151   6.170   6.172   6.185   6.195
229 A"  230 A"  257 A'  258 A'  259 A'  260 A'  231 A"  261 A'                 
  6.196   6.206   6.219   6.227   6.228   6.232   6.235   6.254
232 A"  262 A'  233 A"  234 A"  263 A'  264 A'  265 A'  266 A'                 
  6.262   6.270   6.275   6.292   6.300   6.302   6.327   6.334
235 A"  236 A"  267 A'  237 A"  268 A'  238 A"  239 A"  269 A'                 
  6.340   6.346   6.354   6.369   6.382   6.385   6.391   6.410
240 A"  270 A'  271 A'  241 A"  242 A"  272 A'  273 A'  243 A"                 
  6.418   6.427   6.434   6.455   6.463   6.466   6.482   6.486
274 A'  244 A"  275 A'  245 A"  276 A'  277 A'  278 A'  246 A"                 
  6.502   6.510   6.540   6.546   6.582   6.597   6.607   6.649
247 A"  279 A'  280 A'  248 A"  249 A"  250 A"  281 A'  282 A'                 
  6.683   6.688   6.706   6.717   6.731   6.744   6.747   6.786
283 A'  251 A"  252 A"  253 A"  254 A"  255 A"  284 A'  256 A"                 
  6.833   6.843   6.859   6.888   6.891   6.924   6.924   6.942
257 A"  285 A'  258 A"  259 A"  286 A'  287 A'  260 A"  288 A'                 
  6.950   6.957   6.995   7.076   7.086   7.098   7.107   7.135
261 A"  262 A"  289 A'  290 A'  291 A'  263 A"  292 A'  293 A'                 
  7.138   7.192   7.207   7.211   7.254   7.271   7.291   7.299
264 A"  294 A'  265 A"  266 A"  267 A"  268 A"  295 A'  269 A"                 
  7.329   7.341   7.406   7.437   7.448   7.461   7.565   7.578
270 A"  296 A'  297 A'  271 A"  272 A"  298 A'  273 A"  299 A'                 
  7.606   7.607   7.617   7.640   7.712   7.717   7.730   7.752
274 A"  300 A'  301 A'  302 A'  303 A'  275 A"  276 A"  277 A"                 
  7.760   7.766   7.805   7.814   7.823   7.823   7.863   7.893
304 A'  278 A"  279 A"  305 A'  280 A"  306 A'  281 A"  282 A"                 
  7.905   7.943   7.991   7.998   8.012   8.045   8.048   8.050
307 A'  308 A'  309 A'  283 A"  310 A'  284 A"  285 A"  311 A'                 
  8.056   8.085   8.099   8.105   8.136   8.144   8.158   8.182
312 A'  286 A"  313 A'  287 A"  288 A"  314 A'  315 A'  316 A'                 
  8.203   8.220   8.236   8.250   8.250   8.253   8.272   8.283
289 A"  290 A"  317 A'  318 A'  291 A"  319 A'  320 A'  321 A'                 
  8.301   8.307   8.324   8.333   8.359   8.397   8.411   8.417
292 A"  322 A'  323 A'  324 A'  293 A"  294 A"  295 A"  296 A"                 
  8.428   8.437   8.451   8.476   8.489   8.520   8.553   8.574
297 A"  298 A"  299 A"  300 A"  325 A'  326 A'  327 A'  328 A'                 
  8.594   8.611   8.624   8.624   8.649   8.677   8.679   8.683
329 A'  301 A"  330 A'  302 A"  331 A'  303 A"  332 A'  304 A"                 
  8.703   8.720   8.770   8.787   8.795   8.803   8.807   8.852
305 A"  306 A"  333 A'  334 A'  307 A"  308 A"  335 A'  309 A"                 
  8.904   8.920   8.952   8.972   8.989   8.996   9.054   9.074
336 A'  310 A"  311 A"  312 A"  337 A'  313 A"  338 A'  314 A"                 
  9.106   9.129   9.135   9.159   9.262   9.311   9.344   9.357
339 A'  315 A"  340 A'  316 A"  341 A'  317 A"  342 A'  318 A"                 
  9.604   9.678   9.703   9.793   9.828   9.903  10.441  10.479
343 A'  319 A"  320 A"  344 A'  321 A"  322 A"  345 A'  346 A'                 
 11.119  11.165  11.168  11.192  11.202  11.216  11.318  11.346
347 A'  323 A"  348 A'  349 A'  324 A"  350 A'  351 A'  352 A'                 
 11.445  11.468  11.468  11.564  11.626  11.666  11.902  11.940
325 A"  326 A"  353 A'  354 A'  327 A"  328 A"  355 A'  356 A'                 
 11.973  12.031  12.101  12.150  12.151  12.227  12.244  12.267
329 A"  330 A"  331 A"  332 A"  357 A'  358 A'  333 A"  334 A"                 
 12.430  12.483  12.753  12.786  13.100  13.124  14.134  14.191
359 A'  360 A'  361 A'  362 A'  335 A"  336 A"  363 A'  364 A'                 
 27.658  27.754  28.315  28.376  28.401  28.535  28.650  28.749
365 A'  366 A'  337 A"  367 A'  338 A"  368 A'  339 A"  340 A"                 
 48.029  48.102 146.761 146.875 147.433 147.485 147.532 147.667
369 A'  370 A'  371 A'  372 A'  341 A"  373 A'  342 A"  374 A'                 
147.766 147.880 253.155 253.239
343 A"  344 A"  375 A'  376 A'                                                 
 
 Beta MOs, Unrestricted
 -- Occupied --                  
-19.527 -19.497 -10.562 -10.562 -10.530 -10.530 -10.494 -10.493
  1 A'    2 A'    3 A'    1 A"    4 A'    2 A"    5 A'    3 A"                 
-10.471 -10.471  -1.423  -1.390  -1.099  -1.078  -1.034  -1.018
  6 A'    4 A"    7 A'    8 A'    9 A'   10 A'    5 A"    6 A"                 
 -0.883  -0.866  -0.856  -0.836  -0.827  -0.806  -0.746  -0.726
  7 A"    8 A"   11 A'   12 A'   13 A'   14 A'   15 A'    9 A"                 
 -0.706  -0.703  -0.687  -0.674  -0.668  -0.655  -0.654  -0.634
 16 A'   10 A"   17 A'   11 A"   12 A"   18 A'   19 A'   20 A'                 
 -0.557  -0.535  -0.478
 21 A'   22 A'   13 A"                                                         
 -- Virtual --                   
 -0.279  -0.115  -0.086  -0.067  -0.044  -0.027  -0.017  -0.016
 14 A"   23 A'   24 A'   15 A"   25 A'   16 A"   17 A"   26 A'                 
 -0.012  -0.006  -0.004   0.020   0.024   0.029   0.035   0.041
 27 A'   18 A"   28 A'   19 A"   29 A'   30 A'   31 A'   20 A"                 
  0.049   0.054   0.071   0.071   0.086   0.092   0.096   0.114
 32 A'   21 A"   22 A"   33 A'   34 A'   23 A"   35 A'   36 A'                 
  0.119   0.126   0.133   0.136   0.156   0.161   0.174   0.180
 24 A"   25 A"   37 A'   26 A"   38 A'   27 A"   39 A'   28 A"                 
  0.193   0.203   0.208   0.210   0.213   0.215   0.224   0.226
 29 A"   40 A'   30 A"   41 A'   31 A"   42 A'   32 A"   43 A'                 
  0.233   0.235   0.237   0.252   0.257   0.260   0.261   0.277
 44 A'   45 A'   33 A"   46 A'   34 A"   47 A'   35 A"   36 A"                 
  0.285   0.290   0.306   0.313   0.326   0.337   0.343   0.347
 48 A'   49 A'   37 A"   50 A'   51 A'   38 A"   52 A'   39 A"                 
  0.361   0.365   0.374   0.375   0.392   0.407   0.421   0.431
 40 A"   53 A'   41 A"   54 A'   55 A'   42 A"   43 A"   56 A'                 
  0.433   0.437   0.443   0.444   0.477   0.504   0.510   0.513
 57 A'   44 A"   58 A'   45 A"   46 A"   47 A"   59 A'   48 A"                 
  0.518   0.529   0.552   0.555   0.566   0.571   0.571   0.574
 49 A"   60 A'   50 A"   61 A'   62 A'   63 A'   51 A"   52 A"                 
  0.581   0.594   0.601   0.613   0.623   0.646   0.649   0.662
 64 A'   65 A'   66 A'   67 A'   68 A'   53 A"   69 A'   70 A'                 
  0.666   0.670   0.686   0.688   0.697   0.700   0.708   0.717
 71 A'   54 A"   55 A"   56 A"   72 A'   73 A'   57 A"   74 A'                 
  0.720   0.739   0.741   0.744   0.754   0.783   0.788   0.791
 58 A"   75 A'   59 A"   76 A'   60 A"   61 A"   62 A"   77 A'                 
  0.793   0.794   0.806   0.818   0.821   0.825   0.838   0.845
 63 A"   78 A'   79 A'   64 A"   80 A'   65 A"   81 A'   82 A'                 
  0.847   0.854   0.857   0.857   0.880   0.884   0.893   0.905
 66 A"   83 A'   84 A'   67 A"   85 A'   68 A"   69 A"   86 A'                 
  0.920   0.941   0.947   0.956   0.984   0.989   0.996   1.004
 87 A'   70 A"   88 A'   71 A"   72 A"   73 A"   89 A'   90 A'                 
  1.011   1.020   1.032   1.037   1.039   1.063   1.069   1.080
 74 A"   91 A'   75 A"   76 A"   92 A'   93 A'   77 A"   94 A'                 
  1.081   1.106   1.116   1.129   1.147   1.183   1.194   1.208
 78 A"   95 A'   79 A"   80 A"   96 A'   97 A'   81 A"   98 A'                 
  1.209   1.220   1.225   1.241   1.244   1.249   1.276   1.295
 82 A"   83 A"   99 A'  100 A'   84 A"  101 A'   85 A"   86 A"                 
  1.302   1.313   1.317   1.318   1.324   1.353   1.375   1.398
102 A'  103 A'   87 A"   88 A"  104 A'   89 A"  105 A'  106 A'                 
  1.406   1.438   1.452   1.458   1.466   1.472   1.481   1.487
 90 A"  107 A'   91 A"  108 A'   92 A"  109 A'   93 A"  110 A'                 
  1.503   1.515   1.559   1.568   1.579   1.593   1.599   1.606
 94 A"  111 A'  112 A'   95 A"  113 A'   96 A"   97 A"  114 A'                 
  1.615   1.618   1.620   1.628   1.641   1.665   1.682   1.709
115 A'  116 A'   98 A"   99 A"  117 A'  118 A'  100 A"  119 A'                 
  1.713   1.736   1.745   1.757   1.762   1.779   1.781   1.786
120 A'  121 A'  122 A'  123 A'  101 A"  102 A"  124 A'  125 A'                 
  1.793   1.808   1.837   1.841   1.871   1.875   1.877   1.884
103 A"  126 A'  127 A'  104 A"  128 A'  105 A"  129 A'  106 A"                 
  1.889   1.909   1.916   1.938   1.949   1.957   1.964   1.967
107 A"  108 A"  130 A'  109 A"  131 A'  132 A'  133 A'  110 A"                 
  1.969   1.978   1.992   1.994   2.010   2.030   2.039   2.047
111 A"  134 A'  135 A'  136 A'  112 A"  137 A'  138 A'  139 A'                 
  2.049   2.061   2.068   2.069   2.074   2.081   2.106   2.113
113 A"  114 A"  115 A"  140 A'  116 A"  117 A"  141 A'  118 A"                 
  2.117   2.133   2.136   2.152   2.153   2.175   2.180   2.188
142 A'  143 A'  119 A"  144 A'  120 A"  121 A"  145 A'  122 A"                 
  2.193   2.195   2.222   2.224   2.234   2.248   2.275   2.276
123 A"  146 A'  147 A'  124 A"  148 A'  125 A"  126 A"  149 A'                 
  2.293   2.296   2.315   2.317   2.325   2.334   2.356   2.379
127 A"  150 A'  128 A"  151 A'  129 A"  130 A"  152 A'  153 A'                 
  2.383   2.392   2.401   2.417   2.418   2.430   2.447   2.455
154 A'  131 A"  155 A'  156 A'  132 A"  133 A"  157 A'  134 A"                 
  2.465   2.469   2.477   2.496   2.515   2.535   2.537   2.539
135 A"  158 A'  136 A"  159 A'  137 A"  160 A'  161 A'  138 A"                 
  2.556   2.558   2.573   2.574   2.578   2.589   2.595   2.616
162 A'  139 A"  140 A"  163 A'  141 A"  164 A'  142 A"  165 A'                 
  2.616   2.617   2.619   2.631   2.637   2.646   2.647   2.664
166 A'  143 A"  144 A"  145 A"  167 A'  146 A"  168 A'  169 A'                 
  2.668   2.697   2.704   2.707   2.716   2.720   2.730   2.758
170 A'  147 A"  148 A"  171 A'  172 A'  149 A"  173 A'  174 A'                 
  2.771   2.779   2.784   2.796   2.801   2.810   2.841   2.843
175 A'  150 A"  151 A"  176 A'  152 A"  153 A"  154 A"  155 A"                 
  2.851   2.872   2.901   2.926   2.951   2.957   2.957   2.966
177 A'  178 A'  156 A"  179 A'  157 A"  158 A"  180 A'  159 A"                 
  2.982   3.027   3.043   3.052   3.061   3.082   3.116   3.123
181 A'  160 A"  161 A"  162 A"  182 A'  183 A'  163 A"  184 A'                 
  3.129   3.145   3.158   3.180   3.203   3.220   3.242   3.251
164 A"  185 A'  186 A'  165 A"  166 A"  167 A"  187 A'  188 A'                 
  3.266   3.277   3.285   3.301   3.326   3.329   3.345   3.367
189 A'  168 A"  190 A'  191 A'  192 A'  193 A'  169 A"  170 A"                 
  3.387   3.399   3.399   3.425   3.427   3.454   3.457   3.459
194 A'  195 A'  171 A"  172 A"  196 A'  173 A"  197 A'  174 A"                 
  3.477   3.506   3.515   3.522   3.530   3.581   3.599   3.618
198 A'  199 A'  175 A"  176 A"  200 A'  201 A'  202 A'  177 A"                 
  3.649   3.680   3.694   3.697   3.704   3.749   3.752   3.790
178 A"  179 A"  180 A"  181 A"  203 A'  204 A'  182 A"  205 A'                 
  3.817   3.820   3.850   3.851   3.873   3.917   3.938   3.967
206 A'  183 A"  184 A"  207 A'  208 A'  209 A'  185 A"  210 A'                 
  3.984   4.003   4.022   4.028   4.055   4.070   4.073   4.138
186 A"  211 A'  187 A"  212 A'  213 A'  214 A'  188 A"  189 A"                 
  4.160   4.181   4.224   4.258   4.272   4.278   4.286   4.376
190 A"  191 A"  192 A"  193 A"  215 A'  194 A"  216 A'  217 A'                 
  4.408   4.441   4.461   4.494   4.494   4.509   4.544   4.552
218 A'  219 A'  195 A"  220 A'  196 A"  197 A"  221 A'  198 A"                 
  4.579   4.623   4.643   4.651   4.674   4.690   4.742   4.861
222 A'  199 A"  200 A"  223 A'  201 A"  224 A'  202 A"  203 A"                 
  4.898   4.999   5.056   5.082   5.140   5.153   5.159   5.168
204 A"  225 A'  226 A'  227 A'  228 A'  205 A"  229 A'  206 A"                 
  5.239   5.291   5.300   5.490   5.539   5.543   5.561   5.575
207 A"  208 A"  230 A'  231 A'  232 A'  209 A"  233 A'  210 A"                 
  5.576   5.608   5.619   5.642   5.643   5.656   5.667   5.680
234 A'  235 A'  236 A'  237 A'  211 A"  238 A'  239 A'  212 A"                 
  5.706   5.712   5.734   5.741   5.780   5.789   5.804   5.804
240 A'  241 A'  242 A'  213 A"  243 A'  214 A"  215 A"  244 A'                 
  5.814   5.815   5.832   5.837   5.843   5.868   5.876   5.899
216 A"  217 A"  245 A'  246 A'  218 A"  247 A'  248 A'  249 A'                 
  5.929   5.936   5.947   5.949   5.961   5.962   5.976   5.982
219 A"  250 A'  251 A'  220 A"  221 A"  252 A'  222 A"  253 A'                 
  6.006   6.023   6.029   6.034   6.078   6.080   6.091   6.117
223 A"  254 A'  224 A"  225 A"  226 A"  255 A'  227 A"  256 A'                 
  6.126   6.138   6.144   6.150   6.158   6.173   6.175   6.193
228 A"  229 A"  230 A"  257 A'  258 A'  259 A'  260 A'  231 A"                 
  6.201   6.202   6.211   6.223   6.231   6.232   6.240   6.244
232 A"  261 A'  262 A'  233 A"  263 A'  234 A"  264 A'  265 A'                 
  6.259   6.265   6.279   6.279   6.294   6.306   6.306   6.335
266 A'  235 A"  236 A"  267 A'  237 A"  268 A'  238 A"  239 A"                 
  6.339   6.346   6.355   6.368   6.377   6.385   6.394   6.397
269 A'  240 A"  270 A'  271 A'  241 A"  242 A"  272 A'  273 A'                 
  6.418   6.422   6.434   6.440   6.463   6.468   6.473   6.491
243 A"  274 A'  244 A"  275 A'  245 A"  276 A'  277 A'  278 A'                 
  6.493   6.506   6.517   6.549   6.550   6.593   6.604   6.614
246 A"  247 A"  279 A'  248 A"  280 A'  249 A"  250 A"  281 A'                 
  6.657   6.687   6.695   6.712   6.721   6.736   6.748   6.749
282 A'  283 A'  251 A"  252 A"  253 A"  254 A"  255 A"  284 A'                 
  6.790   6.836   6.848   6.862   6.892   6.894   6.928   6.929
256 A"  257 A"  285 A'  258 A"  259 A"  286 A'  287 A'  260 A"                 
  6.948   6.955   6.962   6.997   7.081   7.091   7.101   7.111
288 A'  261 A"  262 A"  289 A'  290 A'  291 A'  263 A"  292 A'                 
  7.141   7.141   7.198   7.212   7.216   7.259   7.275   7.292
264 A"  293 A'  294 A'  265 A"  266 A"  267 A"  268 A"  295 A'                 
  7.301   7.331   7.344   7.408   7.441   7.452   7.462   7.568
269 A"  270 A"  296 A'  297 A'  271 A"  272 A"  298 A'  273 A"                 
  7.582   7.609   7.615   7.622   7.644   7.715   7.728   7.736
299 A'  274 A"  300 A'  301 A'  302 A'  303 A'  275 A"  276 A"                 
  7.757   7.762   7.769   7.808   7.817   7.825   7.826   7.864
277 A"  304 A'  278 A"  279 A"  305 A'  280 A"  306 A'  281 A"                 
  7.894   7.908   7.945   7.991   8.001   8.012   8.045   8.049
282 A"  307 A'  308 A'  309 A'  283 A"  310 A'  284 A"  285 A"                 
  8.052   8.059   8.087   8.099   8.105   8.137   8.146   8.158
311 A'  312 A'  286 A"  313 A'  287 A"  288 A"  314 A'  315 A'                 
  8.183   8.203   8.220   8.237   8.251   8.252   8.255   8.274
316 A'  289 A"  290 A"  317 A'  318 A'  291 A"  319 A'  320 A'                 
  8.285   8.304   8.308   8.326   8.335   8.362   8.398   8.411
321 A'  292 A"  322 A'  323 A'  324 A'  293 A"  294 A"  295 A"                 
  8.418   8.431   8.439   8.453   8.477   8.491   8.522   8.555
296 A"  297 A"  298 A"  299 A"  300 A"  325 A'  326 A'  327 A'                 
  8.576   8.595   8.612   8.624   8.625   8.649   8.678   8.679
328 A'  329 A'  301 A"  330 A'  302 A"  331 A'  303 A"  332 A'                 
  8.685   8.705   8.722   8.771   8.788   8.795   8.803   8.807
304 A"  305 A"  306 A"  333 A'  334 A'  307 A"  308 A"  335 A'                 
  8.853   8.905   8.920   8.953   8.972   8.990   8.998   9.055
309 A"  336 A'  310 A"  311 A"  312 A"  337 A'  313 A"  338 A'                 
  9.076   9.106   9.129   9.135   9.160   9.262   9.312   9.344
314 A"  339 A'  315 A"  340 A'  316 A"  341 A'  317 A"  342 A'                 
  9.357   9.605   9.679   9.704   9.794   9.829   9.904  10.443
318 A"  343 A'  319 A"  320 A"  344 A'  321 A"  322 A"  345 A'                 
 10.480  11.119  11.166  11.167  11.190  11.204  11.215  11.315
346 A'  347 A'  348 A'  323 A"  349 A'  324 A"  350 A'  351 A'                 
 11.344  11.443  11.467  11.468  11.564  11.624  11.664  11.902
352 A'  325 A"  326 A"  353 A'  354 A'  327 A"  328 A"  355 A'                 
 11.940  11.974  12.032  12.100  12.149  12.150  12.225  12.242
356 A'  329 A"  330 A"  331 A"  357 A'  332 A"  358 A'  333 A"                 
 12.266  12.428  12.482  12.752  12.785  13.100  13.123  14.133
334 A"  359 A'  360 A'  361 A'  362 A'  335 A"  336 A"  363 A'                 
 14.189  27.664  27.759  28.322  28.382  28.407  28.540  28.654
364 A'  365 A'  366 A'  337 A"  367 A'  338 A"  368 A'  339 A"                 
 28.753  48.028  48.101 146.764 146.877 147.437 147.488 147.535
340 A"  369 A'  370 A'  371 A'  372 A'  341 A"  373 A'  342 A"                 
147.669 147.768 147.882 253.155 253.239
374 A'  343 A"  344 A"  375 A'  376 A'                                         
 --------------------------------------------------------------
 
          Ground-State Mulliken Net Atomic Charges

     Atom                 Charge (a.u.)    Spin (a.u.)
  --------------------------------------------------------
      1 O                    -0.204185      -0.028570
      2 C                     0.121068       0.292028
      3 H                     0.195112      -0.011155
      4 C                    -0.089226       0.037340
      5 H                     0.171331      -0.003437
      6 C                    -0.089164       0.037335
      7 H                     0.171277      -0.003441
      8 C                     0.121053       0.292022
      9 H                     0.195124      -0.011149
     10 O                    -0.247087      -0.017541
     11 C                     0.100846       0.184560
     12 H                     0.186872      -0.007554
     13 C                    -0.124452       0.033898
     14 H                     0.164090      -0.002636
     15 C                    -0.124444       0.033899
     16 H                     0.164066      -0.002630
     17 C                     0.100837       0.184603
     18 H                     0.186882      -0.007573
  --------------------------------------------------------
  Sum of atomic charges =     1.000000
  Sum of spin   charges =     1.000000

 -----------------------------------------------------------------
                    Cartesian Multipole Moments
 -----------------------------------------------------------------
    Charge (ESU x 10^10)
                 4.8032
    Dipole Moment (Debye)
         X       1.1879      Y       0.0343      Z       0.0000
       Tot       1.1884
    Quadrupole Moments (Debye-Ang)
        XX     -44.8130     XY      -3.1136     YY     -47.3955
        XZ       0.0000     YZ       0.0000     ZZ     -36.7902
    Octapole Moments (Debye-Ang^2)
       XXX       4.6467    XXY       0.2599    XYY       2.0102
       YYY      -0.5530    XXZ       0.0000    XYZ       0.0000
       YYZ       0.0000    XZZ       2.2180    YZZ       0.0064
       ZZZ       0.0000
    Hexadecapole Moments (Debye-Ang^3)
      XXXX    -862.8194   XXXY      18.5058   XXYY    -178.7638
      XYYY     -16.6155   YYYY    -298.2856   XXXZ       0.0001
      XXYZ       0.0000   XYYZ      -0.0001   YYYZ       0.0002
      XXZZ    -156.2974   XYZZ      13.5899   YYZZ     -76.5825
      XZZZ       0.0000   YZZZ       0.0001   ZZZZ    -271.1625
 -----------------------------------------------------------------
 Total job time:  4578.06s(wall), 4577.52s(cpu) 
 Sun Sep  8 18:52:45 2013

        *************************************************************
        *                                                           *
        *  Thank you very much for using Q-Chem.  Have a nice day.  *
        *                                                           *
        *************************************************************


 
*************************************************************
Job 2 of 2 
*************************************************************
 
Parallel job running on 8 processors.
Parallel job running on 8 processors.
Parallel job running on 8 processors.
Parallel job running on 8 processors.
Parallel job running on 8 processors.
Parallel job running on 8 processors.
Parallel job running on 8 processors.
Parallel job running on 8 processors.
                  Welcome to Q-Chem
     A Quantum Leap Into The Future Of Chemistry

 Y. Shao, L. Fusti-Molnar, Y. Jung, J. Kussmann, C. Ochsenfeld,
 S. T. Brown, A. T. B. Gilbert, L. V. Slipchenko,S. V. Levchenko,
 D. P. O'Neill, R. A. DiStasio Jr., R. C. Lochan, T. Wang,
 G. J. O. Beran, N. A. Besley, J. M. Herbert, C. Y. Lin,
 T. Van Voorhis, S. H. Chien, A. Sodt, R. P. Steele, 
 V. A. Rassolov, P. E. Maslen, P. P. Korambath, R. D. Adamson,
 B. Austin, J. Baker, E. F. C. Byrd, H. Dachsel, R. J. Doerksen,
 A. Dreuw, B. D. Dunietz, A. D. Dutoi, T. R. Furlani,
 S. R. Gwaltney, A. Heyden, S. Hirata, C.-P. Hsu, G. Kedziora,
 R. Z. Khaliullin, P. Klunzinger, A. M. Lee, M. S. Lee, W. Liang,
 I. Lotan, N. Nair, B. Peters, E. I. Proynov, P. A. Pieniazek, 
 Y. M. Rhee, J. Ritchie, E. Rosta, C. D. Sherrill, 
 A. C. Simmonett, J. E. Subotnik, H. L. Woodcock III,
 W. Zhang, A. T. Bell, A. K. Chakraborty, D. M. Chipman,
 F. J. Keil, A. Warshel, W. J. Hehre, H. F. Schaefer III,
 J. Kong, A. I. Krylov, P. M. W. Gill, M. Head-Gordon,

 Additional authors for Version 3.1: 
 Z. Gan, Y. Zhao, N. E. Schultz, D. Truhlar, E. Epifanovsky and M. Oana.

 Additional authors for Version 3.2: 
 R. Baer, B. R. Brooks, D. Casanova, J.-D. Chai, C.-L. Cheng, 
 C. Cramer, D. Crittenden, A. Ghysels, G. Hawkins, E. G. Hohenstein, 
 C. Kelley, W. Kurlancheek, D. Liotard, E. Livshits, P. Manohar, 
 A. Marenich, D. Neuhauser, R. Olson, M. A. Rohrdanz, K. S. Thanthiriwatte, 
 A. J. W. Thom, V. Vanovschi, C. F. Williams, Q. Wu and Z.-Q. You. 
 Additional authors for Version 4.0: 
 E. Sundstrom, J. Parkhill, K. Lawler, D. Lambrecht, M. Goldey, R. Olivares-Amaya,
 Y. Bernard, L. Vogt, M. Watson, J. Liu, S. Yeganeh, B. Kaduk, O. Vydrov, X. Xu, 
 I. Kaliman, C. Zhang, N. Russ, I.Y. Zhang, W.A. Goddard III, F. Liu, R. King ,
 A. Landau, M. Wormit, A. Dreuw, M. Diedenhofen, A. Klamt, A.W. Lange, D. Ghosh,
 D. Kosenkov, A. Landau, D. Zuev, J. Deng, S.P. Mao, Y.C. Su, D. Small
 
 Q-Chem, Version 4.0, Q-Chem, Inc., Pittsburgh, PA (2007).


 Intel X86 EM64T Linux Version

 Q-chem begins on Sun Sep  8 18:53:19 2013  

Host: lcmd59
0
 Parallel job on  8  processors

theFileMan(): MAXOPENFILES=974 MAX_SUB_FILE_NUM=16
Maximum size of a physical file is 2.0 GB, maximum size of a tmp-file is 32.0 GB

In read_wb97x_ddsc()
Using CC_AB1 = 1.000000
Using CC_AB2 = 1.794130
Using CC_AB3 = -12.047700
Using CC_AB4 = 14.084700
Using CC_AB5 = -8.508090
Using CC_AA1 = 1.000000
Using CC_AA2 = -6.905390
Using CC_AA3 = 31.334300
Using CC_AA4 = -51.053300
Using CC_AA5 = 26.442300
Using TTA = 19.297100
Using TTB = 1.432200
Using CX_AA1 = 0.779640
Using CX_AA2 = 0.661160
Using CX_AA3 = 0.574541
Using CX_AA4 = -5.256710
Using CX_AA5 = 11.638600
Using CXHF = 0.222036
Using OMEGA = 0.200000
Writing file FILE_WB97X_DDSC
ending read_wb97x_ddsc()
Finally everything over in PARseQInput

--------------------------------------------------------------
User input:
--------------------------------------------------------------

$molecule
  READ
$end

$rem
  JOBTYPE                   SP                        
  EXCHANGE                  OMEGAB97X-DDSC            
  BASIS                     DEF2-QZVP                 
  SYMMETRY                  FALSE                     
  MAX_SCF_CYCLES            100                       
  SCF_ALGORITHM             DIIS                      
  MEM_TOTAL                 1800                      
  MEM_STATIC                400                       
  SCF_GUESS                 READ                      
  DFTVDW_JOBNUMBER          1                         
  DFTVDW_METHOD             4                         
  XC_GRID                   000075000302              
  THRESH                    12  
  unrestricted              TRUE                      
$end

$wb97x_ddsc
  CC_AB           1.000000    1.794130  -12.047700   14.084700   -8.508090
  CC_AA           1.000000   -6.905390   31.334300  -51.053300   26.442300
  TTA            19.2971
  TTB             1.4322
  CX_AA           0.779640    0.661160    0.574541   -5.256710   11.638600
  CXHF            0.222036
  OMEGA           0.200000
$end

--------------------------------------------------------------
 ----------------------------------------------------
       Standard Nuclear Orientation (Angstroms)
    I     Atom         X            Y            Z
 ----------------------------------------------------
    1      O       1.550000     1.176237     0.000000
    2      C       1.550000     0.369891    -1.083017
    3      H       1.550000     0.860605    -2.049077
    4      C       1.550000    -0.991037     0.691793
    5      H       1.550001    -1.838676     1.365016
    6      C       1.550000    -0.991037    -0.691793
    7      H       1.550001    -1.838676    -1.365016
    8      C       1.550000     0.369891     1.083017
    9      H       1.550000     0.860605     2.049077
   10      O      -1.550000    -1.161251     0.000000
   11      C      -1.550000    -0.347360    -1.094894
   12      H      -1.550000    -0.850458    -2.049779
   13      C      -1.550000     0.959963     0.717891
   14      H      -1.550001     1.819839     1.373246
   15      C      -1.550000     0.959963    -0.717891
   16      H      -1.550001     1.819839    -1.373246
   17      C      -1.550000    -0.347360     1.094894
   18      H      -1.550000    -0.850458     2.049779
 ----------------------------------------------------
 Molecular Point Group                 Cs    NOp =  2
 Largest Abelian Subgroup              Cs    NOp =  2
 Nuclear Repulsion Energy =   512.8980463317 hartrees
 There are       36 alpha and       35 beta electrons
 Requested basis set is def2-QZVP
 There are 240 shells and 720 basis functions

Total QAlloc Memory Limit   1800 MB
Mega-Array Size       392 MB
MEM_STATIC part       400 MB
 A cutoff of  1.0D-12 yielded  23979 shell pairs
 There are    217351 function pairs (    301135 Cartesian)
 Smallest overlap matrix eigenvalue = 1.73E-05

  Scale SEOQF with 1.000000e-01/1.000000e-01/1.000000e-01

 Standard Electronic Orientation quadrupole field applied
 Nucleus-field energy     =     0.0000000038 hartrees
 Guess MOs from SCF MO coefficient file
Reading MOs from coefficient file
Reading MOs from coefficient file
 Long-range K will be added via erf
 Coulomb attenuation parameter = 0.2 bohr**(-1)
 An unrestricted hybrid HF-DFT SCF calculation will be
 performed using Pulay DIIS extrapolation
 Exchange:     0.2220 Hartree-Fock + 1.0000 wB97X-dDsC + LR-HF
 Correlation:  1.0000 VDW_sCBR + 1.0000 wB97X-dDsC
 Using Euler-Maclaurin-Lebedev (75,302) quadrature formula
 SCF converges when DIIS error is below 1.0E-05
 Requested basis set is def2-QZVP
 There are 240 shells and 720 basis functions
 A cutoff of  1.0D-12 yielded  23979 shell pairs
 There are    217351 function pairs (    301135 Cartesian)

NRad = 75 NAng = 302
CFUNC_VDW_sCBR not done here.
 ---------------------------------------
  Cycle       Energy         DIIS Error
 ---------------------------------------
    1    -459.8726035919      2.63E-05

NRad = 75 NAng = 302
    2    -459.8726267523      4.10E-06 Convergence criterion met
 ---------------------------------------
ex ec : -40.683527 -3.064594 


    Starting XDM module in DFT 


NRad = 75 NAng = 302

   VDWBR = -0.0146341237 h [ C6:-12.95816  HO:-18.53543  TT: -9.18305 kcal/mol]
   Evdw(TT) = -0.0146341237 Hartree  =  -9.1830516188 KCal/mol

xdm vdw energy: -0.014634 
ex ec final with vdw: -40.683527 -3.079228 
    2    -459.8872608760      4.10E-06 -- Convergence criterion met (with XDM)

 <S^2> = 0.7615
 SCF time:  CPU 3171.07 s  wall 3171.22 s
 SCF   energy in the final basis set = -459.8872608760
 Total energy in the final basis set = -459.8872608760
 Analysis of SCF Wavefunction
 
 --------------------------------------------------------------
             Orbital Energies (a.u.) and Symmetries
 --------------------------------------------------------------
 
 Alpha MOs, Unrestricted
 -- Occupied --                  
-19.526 -19.497 -10.566 -10.566 -10.532 -10.532 -10.494 -10.494
  1 A'    2 A'    1 A"    3 A'    2 A"    4 A'    5 A'    3 A"                 
-10.471 -10.471  -1.425  -1.392  -1.104  -1.082  -1.048  -1.028
  6 A'    4 A"    7 A'    8 A'    9 A'   10 A'    5 A"    6 A"                 
 -0.887  -0.869  -0.864  -0.841  -0.829  -0.807  -0.759  -0.729
  7 A"    8 A"   11 A'   12 A'   13 A'   14 A'   15 A'    9 A"                 
 -0.718  -0.705  -0.688  -0.678  -0.671  -0.656  -0.655  -0.636
 16 A'   10 A"   17 A'   11 A"   12 A"   18 A'   19 A'   20 A'                 
 -0.564  -0.540  -0.535  -0.483
 21 A'   22 A'   13 A"   14 A"                                                 
 -- Virtual --                   
 -0.140  -0.105  -0.079  -0.045  -0.031  -0.028  -0.017  -0.014
 23 A'   24 A'   15 A"   25 A'   16 A"   17 A"   26 A'   27 A'                 
 -0.007  -0.005   0.018   0.023   0.027   0.034   0.039   0.047
 18 A"   28 A'   19 A"   29 A'   30 A'   31 A'   20 A"   32 A'                 
  0.052   0.069   0.070   0.083   0.090   0.094   0.111   0.117
 21 A"   22 A"   33 A'   34 A'   23 A"   35 A'   36 A'   24 A"                 
  0.123   0.131   0.134   0.154   0.154   0.172   0.176   0.190
 25 A"   37 A'   26 A"   27 A"   38 A'   39 A'   28 A"   29 A"                 
  0.199   0.205   0.210   0.211   0.214   0.221   0.225   0.231
 40 A'   30 A"   41 A'   31 A"   42 A'   32 A"   43 A'   44 A'                 
  0.235   0.235   0.251   0.254   0.256   0.259   0.275   0.283
 45 A'   33 A"   46 A'   34 A"   47 A'   35 A"   36 A"   48 A'                 
  0.288   0.304   0.312   0.325   0.336   0.342   0.346   0.360
 49 A'   37 A"   50 A'   51 A'   38 A"   52 A'   39 A"   40 A"                 
  0.365   0.373   0.374   0.391   0.405   0.419   0.428   0.433
 53 A'   41 A"   54 A'   55 A'   42 A"   43 A"   56 A'   57 A'                 
  0.436   0.442   0.442   0.476   0.500   0.508   0.510   0.515
 44 A"   58 A'   45 A"   46 A"   47 A"   59 A'   48 A"   49 A"                 
  0.527   0.548   0.552   0.563   0.565   0.568   0.571   0.578
 60 A'   50 A"   61 A'   62 A'   51 A"   63 A'   52 A"   64 A'                 
  0.590   0.599   0.610   0.620   0.642   0.646   0.659   0.664
 65 A'   66 A'   67 A'   68 A'   53 A"   69 A'   70 A'   71 A'                 
  0.668   0.683   0.687   0.696   0.697   0.706   0.715   0.717
 54 A"   55 A"   56 A"   72 A'   73 A'   57 A"   74 A'   58 A"                 
  0.738   0.740   0.743   0.752   0.779   0.785   0.789   0.792
 75 A'   59 A"   76 A'   60 A"   61 A"   62 A"   77 A'   63 A"                 
  0.792   0.804   0.816   0.820   0.823   0.837   0.844   0.846
 78 A'   79 A'   64 A"   80 A'   65 A"   81 A'   82 A'   66 A"                 
  0.852   0.854   0.856   0.879   0.882   0.892   0.905   0.919
 83 A'   84 A'   67 A"   85 A'   68 A"   69 A"   86 A'   87 A'                 
  0.939   0.947   0.952   0.983   0.987   0.993   1.002   1.008
 70 A"   88 A'   71 A"   72 A"   73 A"   89 A'   90 A'   74 A"                 
  1.019   1.031   1.035   1.037   1.062   1.067   1.078   1.079
 91 A'   75 A"   76 A"   92 A'   93 A'   77 A"   94 A'   78 A"                 
  1.104   1.115   1.127   1.146   1.180   1.188   1.206   1.207
 95 A'   79 A"   80 A"   96 A'   97 A'   81 A"   82 A"   98 A'                 
  1.216   1.223   1.239   1.242   1.248   1.275   1.293   1.300
 83 A"   99 A'  100 A'   84 A"  101 A'   85 A"   86 A"  102 A'                 
  1.312   1.315   1.315   1.321   1.352   1.374   1.397   1.404
103 A'   87 A"   88 A"  104 A'   89 A"  105 A'  106 A'   90 A"                 
  1.436   1.450   1.455   1.464   1.470   1.479   1.486   1.501
107 A'   91 A"  108 A'   92 A"  109 A'   93 A"  110 A'   94 A"                 
  1.514   1.557   1.565   1.576   1.591   1.598   1.602   1.611
111 A'  112 A'   95 A"  113 A'   96 A"   97 A"  114 A'  115 A'                 
  1.616   1.619   1.623   1.638   1.663   1.678   1.706   1.710
116 A'   98 A"   99 A"  117 A'  118 A'  100 A"  119 A'  120 A'                 
  1.731   1.742   1.752   1.754   1.776   1.778   1.783   1.787
121 A'  122 A'  123 A'  101 A"  102 A"  124 A'  125 A'  103 A"                 
  1.807   1.836   1.837   1.866   1.871   1.872   1.881   1.883
126 A'  127 A'  104 A"  128 A'  105 A"  129 A'  106 A"  107 A"                 
  1.906   1.912   1.933   1.945   1.953   1.961   1.962   1.966
108 A"  130 A'  109 A"  131 A'  132 A'  110 A"  133 A'  111 A"                 
  1.976   1.988   1.990   2.005   2.024   2.033   2.044   2.045
134 A'  135 A'  136 A'  112 A"  137 A'  138 A'  139 A'  113 A"                 
  2.056   2.065   2.068   2.071   2.077   2.101   2.108   2.115
114 A"  115 A"  140 A'  116 A"  117 A"  141 A'  118 A"  142 A'                 
  2.131   2.131   2.150   2.150   2.170   2.178   2.184   2.189
143 A'  119 A"  120 A"  144 A'  121 A"  145 A'  122 A"  123 A"                 
  2.192   2.218   2.221   2.232   2.246   2.271   2.272   2.288
146 A'  147 A'  124 A"  148 A'  125 A"  126 A"  149 A'  127 A"                 
  2.293   2.311   2.315   2.322   2.330   2.354   2.377   2.381
150 A'  128 A"  151 A'  129 A"  130 A"  152 A'  153 A'  154 A'                 
  2.387   2.399   2.414   2.414   2.427   2.443   2.453   2.461
131 A"  155 A'  132 A"  156 A'  133 A"  157 A'  134 A"  135 A"                 
  2.466   2.475   2.493   2.512   2.531   2.534   2.536   2.553
158 A'  136 A"  159 A'  137 A"  160 A'  161 A'  138 A"  139 A"                 
  2.553   2.570   2.571   2.574   2.587   2.593   2.611   2.613
162 A'  140 A"  163 A'  141 A"  164 A'  142 A"  165 A'  143 A"                 
  2.614   2.615   2.628   2.634   2.642   2.644   2.661   2.666
166 A'  144 A"  145 A"  167 A'  168 A'  146 A"  169 A'  170 A'                 
  2.692   2.699   2.704   2.714   2.716   2.727   2.756   2.769
147 A"  148 A"  171 A'  172 A'  149 A"  173 A'  174 A'  175 A'                 
  2.775   2.780   2.791   2.798   2.807   2.837   2.840   2.847
150 A"  151 A"  176 A'  152 A"  153 A"  154 A"  155 A"  177 A'                 
  2.868   2.898   2.921   2.947   2.952   2.956   2.964   2.980
178 A'  156 A"  179 A'  157 A"  158 A"  180 A'  159 A"  181 A'                 
  3.022   3.040   3.049   3.056   3.078   3.113   3.120   3.126
160 A"  161 A"  162 A"  182 A'  183 A'  163 A"  184 A'  164 A"                 
  3.143   3.154   3.175   3.197   3.217   3.238   3.249   3.261
185 A'  186 A'  165 A"  166 A"  167 A"  187 A'  188 A'  189 A'                 
  3.274   3.283   3.298   3.323   3.327   3.341   3.363   3.381
168 A"  190 A'  191 A'  192 A'  193 A'  169 A"  170 A"  194 A'                 
  3.395   3.397   3.421   3.422   3.451   3.453   3.456   3.472
171 A"  195 A'  196 A'  172 A"  173 A"  197 A'  174 A"  198 A'                 
  3.505   3.512   3.519   3.528   3.577   3.597   3.613   3.646
199 A'  175 A"  176 A"  200 A'  201 A'  202 A'  177 A"  178 A"                 
  3.677   3.689   3.694   3.700   3.745   3.745   3.788   3.814
179 A"  180 A"  181 A"  203 A'  182 A"  204 A'  205 A'  206 A'                 
  3.816   3.847   3.848   3.871   3.915   3.935   3.965   3.981
183 A"  184 A"  207 A'  208 A'  209 A'  185 A"  210 A'  186 A"                 
  3.996   4.018   4.023   4.051   4.067   4.070   4.133   4.156
211 A'  187 A"  212 A'  213 A'  214 A'  188 A"  189 A"  190 A"                 
  4.178   4.222   4.253   4.273   4.275   4.286   4.373   4.406
191 A"  192 A"  193 A"  215 A'  194 A"  216 A'  217 A'  218 A'                 
  4.439   4.458   4.492   4.492   4.507   4.543   4.549   4.578
219 A'  195 A"  196 A"  220 A'  197 A"  221 A'  198 A"  222 A'                 
  4.620   4.641   4.650   4.672   4.689   4.740   4.859   4.896
199 A"  200 A"  223 A'  201 A"  224 A'  202 A"  203 A"  204 A"                 
  4.996   5.055   5.081   5.137   5.150   5.157   5.165   5.235
225 A'  226 A'  227 A'  228 A'  205 A"  229 A'  206 A"  207 A"                 
  5.289   5.301   5.482   5.531   5.538   5.556   5.570   5.572
208 A"  230 A'  231 A'  232 A'  209 A"  233 A'  234 A'  210 A"                 
  5.604   5.616   5.636   5.641   5.653   5.666   5.674   5.701
235 A'  236 A'  211 A"  237 A'  238 A'  239 A'  212 A"  240 A'                 
  5.710   5.731   5.738   5.777   5.786   5.800   5.802   5.810
241 A'  242 A'  213 A"  243 A'  214 A"  215 A"  244 A'  216 A"                 
  5.812   5.828   5.835   5.841   5.865   5.873   5.897   5.923
217 A"  245 A'  246 A'  218 A"  247 A'  248 A'  249 A'  219 A"                 
  5.933   5.945   5.946   5.955   5.960   5.974   5.980   6.001
250 A'  251 A'  220 A"  221 A"  252 A'  222 A"  253 A'  223 A"                 
  6.020   6.023   6.027   6.070   6.076   6.086   6.112   6.120
254 A'  224 A"  225 A"  226 A"  255 A'  227 A"  256 A'  228 A"                 
  6.132   6.139   6.143   6.151   6.170   6.171   6.185   6.195
229 A"  230 A"  257 A'  258 A'  259 A'  260 A'  231 A"  261 A'                 
  6.196   6.207   6.219   6.227   6.228   6.232   6.235   6.254
232 A"  262 A'  233 A"  234 A"  263 A'  264 A'  265 A'  266 A'                 
  6.262   6.269   6.275   6.292   6.300   6.302   6.327   6.334
235 A"  236 A"  267 A'  237 A"  268 A'  238 A"  239 A"  269 A'                 
  6.340   6.347   6.354   6.369   6.382   6.385   6.390   6.410
240 A"  270 A'  271 A'  241 A"  242 A"  272 A'  273 A'  243 A"                 
  6.418   6.427   6.434   6.455   6.462   6.467   6.481   6.486
274 A'  244 A"  275 A'  245 A"  276 A'  277 A'  278 A'  246 A"                 
  6.502   6.510   6.540   6.546   6.582   6.597   6.606   6.648
247 A"  279 A'  280 A'  248 A"  249 A"  250 A"  281 A'  282 A'                 
  6.683   6.687   6.705   6.715   6.730   6.743   6.747   6.785
283 A'  251 A"  252 A"  253 A"  254 A"  255 A"  284 A'  256 A"                 
  6.833   6.844   6.859   6.887   6.890   6.924   6.924   6.942
257 A"  285 A'  258 A"  259 A"  286 A'  260 A"  287 A'  288 A'                 
  6.950   6.957   6.994   7.075   7.085   7.098   7.106   7.135
261 A"  262 A"  289 A'  290 A'  291 A'  263 A"  292 A'  293 A'                 
  7.139   7.192   7.207   7.211   7.255   7.271   7.291   7.299
264 A"  294 A'  265 A"  266 A"  267 A"  268 A"  295 A'  269 A"                 
  7.329   7.342   7.406   7.437   7.448   7.461   7.566   7.578
270 A"  296 A'  297 A'  271 A"  272 A"  298 A'  273 A"  299 A'                 
  7.606   7.607   7.618   7.640   7.713   7.717   7.731   7.752
274 A"  300 A'  301 A'  302 A'  303 A'  275 A"  276 A"  277 A"                 
  7.760   7.766   7.806   7.814   7.823   7.823   7.863   7.893
304 A'  278 A"  279 A"  305 A'  280 A"  306 A'  281 A"  282 A"                 
  7.906   7.944   7.991   7.999   8.012   8.045   8.048   8.050
307 A'  308 A'  309 A'  283 A"  310 A'  284 A"  285 A"  311 A'                 
  8.056   8.085   8.099   8.104   8.136   8.145   8.158   8.183
312 A'  286 A"  313 A'  287 A"  288 A"  314 A'  315 A'  316 A'                 
  8.203   8.220   8.236   8.250   8.250   8.253   8.272   8.283
289 A"  290 A"  317 A'  318 A'  291 A"  319 A'  320 A'  321 A'                 
  8.301   8.306   8.325   8.333   8.358   8.397   8.411   8.417
292 A"  322 A'  323 A'  324 A'  293 A"  294 A"  295 A"  296 A"                 
  8.428   8.437   8.451   8.476   8.489   8.520   8.554   8.574
297 A"  298 A"  299 A"  300 A"  325 A'  326 A'  327 A'  328 A'                 
  8.593   8.611   8.624   8.625   8.649   8.678   8.679   8.683
329 A'  301 A"  330 A'  302 A"  331 A'  303 A"  332 A'  304 A"                 
  8.702   8.720   8.772   8.787   8.796   8.803   8.808   8.852
305 A"  306 A"  333 A'  334 A'  307 A"  308 A"  335 A'  309 A"                 
  8.904   8.919   8.953   8.973   8.989   8.996   9.054   9.074
336 A'  310 A"  311 A"  312 A"  337 A'  313 A"  338 A'  314 A"                 
  9.105   9.129   9.134   9.160   9.262   9.311   9.344   9.357
339 A'  315 A"  340 A'  316 A"  341 A'  317 A"  342 A'  318 A"                 
  9.604   9.678   9.704   9.792   9.828   9.903  10.440  10.478
343 A'  319 A"  320 A"  344 A'  321 A"  322 A"  345 A'  346 A'                 
 11.119  11.165  11.168  11.191  11.202  11.215  11.318  11.346
347 A'  323 A"  348 A'  349 A'  324 A"  350 A'  351 A'  352 A'                 
 11.445  11.468  11.468  11.564  11.627  11.666  11.903  11.940
325 A"  326 A"  353 A'  354 A'  327 A"  328 A"  355 A'  356 A'                 
 11.973  12.031  12.101  12.150  12.151  12.227  12.243  12.266
329 A"  330 A"  331 A"  332 A"  357 A'  358 A'  333 A"  334 A"                 
 12.430  12.483  12.754  12.786  13.099  13.123  14.134  14.190
359 A'  360 A'  361 A'  362 A'  335 A"  336 A"  363 A'  364 A'                 
 27.659  27.755  28.315  28.377  28.401  28.536  28.651  28.750
365 A'  366 A'  337 A"  367 A'  338 A"  368 A'  339 A"  340 A"                 
 48.029  48.103 146.762 146.875 147.434 147.485 147.532 147.667
369 A'  370 A'  371 A'  372 A'  341 A"  373 A'  342 A"  374 A'                 
147.767 147.881 253.155 253.239
343 A"  344 A"  375 A'  376 A'                                                 
 
 Beta MOs, Unrestricted
 -- Occupied --                  
-19.527 -19.497 -10.562 -10.562 -10.530 -10.530 -10.494 -10.493
  1 A'    2 A'    3 A'    1 A"    4 A'    2 A"    5 A'    3 A"                 
-10.471 -10.471  -1.423  -1.390  -1.100  -1.078  -1.034  -1.018
  6 A'    4 A"    7 A'    8 A'    9 A'   10 A'    5 A"    6 A"                 
 -0.883  -0.866  -0.856  -0.836  -0.827  -0.806  -0.746  -0.726
  7 A"    8 A"   11 A'   12 A'   13 A'   14 A'   15 A'    9 A"                 
 -0.706  -0.703  -0.688  -0.674  -0.668  -0.655  -0.654  -0.634
 16 A'   10 A"   17 A'   11 A"   12 A"   18 A'   19 A'   20 A'                 
 -0.557  -0.535  -0.478
 21 A'   22 A'   13 A"                                                         
 -- Virtual --                   
 -0.279  -0.114  -0.086  -0.067  -0.044  -0.027  -0.017  -0.016
 14 A"   23 A'   24 A'   15 A"   25 A'   16 A"   17 A"   26 A'                 
 -0.012  -0.006  -0.004   0.020   0.024   0.029   0.035   0.041
 27 A'   18 A"   28 A'   19 A"   29 A'   30 A'   31 A'   20 A"                 
  0.049   0.054   0.071   0.071   0.086   0.093   0.096   0.114
 32 A'   21 A"   22 A"   33 A'   34 A'   23 A"   35 A'   36 A'                 
  0.119   0.126   0.133   0.136   0.156   0.161   0.174   0.180
 24 A"   25 A"   37 A'   26 A"   38 A'   27 A"   39 A'   28 A"                 
  0.193   0.203   0.208   0.210   0.213   0.215   0.224   0.226
 29 A"   40 A'   30 A"   41 A'   31 A"   42 A'   32 A"   43 A'                 
  0.233   0.235   0.237   0.252   0.257   0.260   0.261   0.277
 44 A'   45 A'   33 A"   46 A'   34 A"   47 A'   35 A"   36 A"                 
  0.285   0.290   0.306   0.313   0.326   0.337   0.343   0.347
 48 A'   49 A'   37 A"   50 A'   51 A'   38 A"   52 A'   39 A"                 
  0.361   0.366   0.374   0.375   0.392   0.407   0.421   0.431
 40 A"   53 A'   41 A"   54 A'   55 A'   42 A"   43 A"   56 A'                 
  0.433   0.437   0.443   0.444   0.477   0.504   0.510   0.513
 57 A'   44 A"   58 A'   45 A"   46 A"   47 A"   59 A'   48 A"                 
  0.518   0.529   0.552   0.555   0.566   0.571   0.571   0.573
 49 A"   60 A'   50 A"   61 A'   62 A'   63 A'   51 A"   52 A"                 
  0.581   0.594   0.601   0.613   0.623   0.646   0.649   0.662
 64 A'   65 A'   66 A'   67 A'   68 A'   53 A"   69 A'   70 A'                 
  0.666   0.670   0.686   0.688   0.698   0.700   0.708   0.717
 71 A'   54 A"   55 A"   56 A"   72 A'   73 A'   57 A"   74 A'                 
  0.720   0.739   0.741   0.744   0.754   0.783   0.788   0.791
 58 A"   75 A'   59 A"   76 A'   60 A"   61 A"   62 A"   77 A'                 
  0.793   0.794   0.806   0.818   0.821   0.825   0.838   0.845
 63 A"   78 A'   79 A'   64 A"   80 A'   65 A"   81 A'   82 A'                 
  0.847   0.854   0.857   0.857   0.880   0.884   0.893   0.906
 66 A"   83 A'   84 A'   67 A"   85 A'   68 A"   69 A"   86 A'                 
  0.920   0.941   0.948   0.956   0.984   0.989   0.996   1.004
 87 A'   70 A"   88 A'   71 A"   72 A"   73 A"   89 A'   90 A'                 
  1.011   1.020   1.032   1.037   1.039   1.063   1.069   1.080
 74 A"   91 A'   75 A"   76 A"   92 A'   93 A'   77 A"   94 A'                 
  1.081   1.106   1.116   1.129   1.147   1.183   1.194   1.208
 78 A"   95 A'   79 A"   80 A"   96 A'   97 A'   81 A"   98 A'                 
  1.209   1.220   1.224   1.241   1.244   1.249   1.276   1.295
 82 A"   83 A"   99 A'  100 A'   84 A"  101 A'   85 A"   86 A"                 
  1.302   1.313   1.317   1.318   1.324   1.352   1.375   1.398
102 A'  103 A'   87 A"   88 A"  104 A'   89 A"  105 A'  106 A'                 
  1.406   1.438   1.452   1.458   1.466   1.472   1.481   1.487
 90 A"  107 A'   91 A"  108 A'   92 A"  109 A'   93 A"  110 A'                 
  1.503   1.515   1.559   1.567   1.579   1.593   1.599   1.606
 94 A"  111 A'  112 A'   95 A"  113 A'   96 A"   97 A"  114 A'                 
  1.615   1.618   1.620   1.628   1.641   1.665   1.682   1.709
115 A'  116 A'   98 A"   99 A"  117 A'  118 A'  100 A"  119 A'                 
  1.713   1.735   1.745   1.756   1.762   1.779   1.781   1.786
120 A'  121 A'  122 A'  123 A'  101 A"  102 A"  124 A'  125 A'                 
  1.793   1.809   1.838   1.841   1.871   1.875   1.877   1.884
103 A"  126 A'  127 A'  104 A"  128 A'  105 A"  129 A'  106 A"                 
  1.889   1.909   1.916   1.939   1.950   1.957   1.964   1.967
107 A"  108 A"  130 A'  109 A"  131 A'  132 A'  133 A'  110 A"                 
  1.969   1.978   1.992   1.994   2.010   2.030   2.039   2.047
111 A"  134 A'  135 A'  136 A'  112 A"  137 A'  138 A'  139 A'                 
  2.049   2.061   2.068   2.069   2.074   2.081   2.106   2.113
113 A"  114 A"  115 A"  140 A'  116 A"  117 A"  141 A'  118 A"                 
  2.117   2.133   2.137   2.152   2.153   2.175   2.180   2.188
142 A'  143 A'  119 A"  144 A'  120 A"  121 A"  145 A'  122 A"                 
  2.193   2.196   2.222   2.224   2.234   2.249   2.275   2.276
123 A"  146 A'  147 A'  124 A"  148 A'  125 A"  126 A"  149 A'                 
  2.293   2.296   2.315   2.317   2.325   2.334   2.356   2.379
127 A"  150 A'  128 A"  151 A'  129 A"  130 A"  152 A'  153 A'                 
  2.383   2.392   2.401   2.417   2.418   2.429   2.447   2.455
154 A'  131 A"  155 A'  156 A'  132 A"  133 A"  157 A'  134 A"                 
  2.466   2.469   2.477   2.496   2.515   2.534   2.537   2.539
135 A"  158 A'  136 A"  159 A'  137 A"  160 A'  161 A'  138 A"                 
  2.556   2.558   2.573   2.574   2.578   2.589   2.595   2.616
162 A'  139 A"  140 A"  163 A'  141 A"  164 A'  142 A"  165 A'                 
  2.616   2.617   2.619   2.631   2.637   2.646   2.647   2.664
166 A'  143 A"  144 A"  145 A"  167 A'  146 A"  168 A'  169 A'                 
  2.668   2.697   2.704   2.707   2.716   2.720   2.731   2.758
170 A'  147 A"  148 A"  171 A'  172 A'  149 A"  173 A'  174 A'                 
  2.771   2.779   2.784   2.796   2.801   2.810   2.841   2.843
175 A'  150 A"  151 A"  176 A'  152 A"  153 A"  154 A"  155 A"                 
  2.851   2.872   2.901   2.926   2.951   2.957   2.957   2.966
177 A'  178 A'  156 A"  179 A'  157 A"  158 A"  180 A'  159 A"                 
  2.982   3.027   3.043   3.052   3.061   3.082   3.115   3.123
181 A'  160 A"  161 A"  162 A"  182 A'  183 A'  163 A"  184 A'                 
  3.129   3.146   3.158   3.180   3.203   3.220   3.242   3.251
164 A"  185 A'  186 A'  165 A"  166 A"  167 A"  187 A'  188 A'                 
  3.266   3.277   3.285   3.301   3.326   3.329   3.345   3.367
189 A'  168 A"  190 A'  191 A'  192 A'  193 A'  169 A"  170 A"                 
  3.387   3.399   3.399   3.425   3.427   3.454   3.457   3.459
194 A'  195 A'  171 A"  172 A"  196 A'  173 A"  197 A'  174 A"                 
  3.477   3.506   3.515   3.522   3.530   3.581   3.599   3.618
198 A'  199 A'  175 A"  176 A"  200 A'  201 A'  202 A'  177 A"                 
  3.649   3.679   3.694   3.697   3.704   3.749   3.752   3.790
178 A"  179 A"  180 A"  181 A"  203 A'  204 A'  182 A"  205 A'                 
  3.817   3.820   3.850   3.851   3.873   3.917   3.937   3.967
206 A'  183 A"  184 A"  207 A'  208 A'  209 A'  185 A"  210 A'                 
  3.984   4.003   4.022   4.027   4.055   4.070   4.073   4.138
186 A"  211 A'  187 A"  212 A'  213 A'  214 A'  188 A"  189 A"                 
  4.159   4.181   4.224   4.258   4.272   4.278   4.287   4.376
190 A"  191 A"  192 A"  193 A"  215 A'  194 A"  216 A'  217 A'                 
  4.408   4.441   4.461   4.494   4.494   4.509   4.544   4.552
218 A'  219 A'  195 A"  220 A'  196 A"  197 A"  221 A'  198 A"                 
  4.579   4.623   4.643   4.651   4.674   4.690   4.742   4.861
222 A'  199 A"  200 A"  223 A'  201 A"  224 A'  202 A"  203 A"                 
  4.898   4.999   5.056   5.082   5.140   5.152   5.159   5.168
204 A"  225 A'  226 A'  227 A'  228 A'  205 A"  229 A'  206 A"                 
  5.239   5.291   5.300   5.489   5.538   5.543   5.560   5.575
207 A"  208 A"  230 A'  231 A'  232 A'  209 A"  233 A'  210 A"                 
  5.576   5.608   5.619   5.642   5.643   5.656   5.667   5.679
234 A'  235 A'  236 A'  211 A"  237 A'  238 A'  239 A'  212 A"                 
  5.706   5.712   5.734   5.741   5.780   5.789   5.804   5.804
240 A'  241 A'  242 A'  213 A"  243 A'  214 A"  215 A"  244 A'                 
  5.814   5.815   5.831   5.838   5.843   5.867   5.876   5.900
216 A"  217 A"  245 A'  246 A'  218 A"  247 A'  248 A'  249 A'                 
  5.929   5.937   5.948   5.949   5.961   5.963   5.977   5.983
219 A"  250 A'  251 A'  220 A"  221 A"  252 A'  222 A"  253 A'                 
  6.006   6.024   6.030   6.034   6.078   6.081   6.091   6.118
223 A"  254 A'  224 A"  225 A"  226 A"  255 A'  227 A"  256 A'                 
  6.126   6.138   6.144   6.151   6.158   6.173   6.175   6.193
228 A"  229 A"  230 A"  257 A'  258 A'  259 A'  260 A'  231 A"                 
  6.201   6.202   6.211   6.223   6.231   6.232   6.240   6.244
232 A"  261 A'  262 A'  233 A"  263 A'  234 A"  264 A'  265 A'                 
  6.259   6.266   6.279   6.279   6.294   6.306   6.306   6.335
266 A'  235 A"  236 A"  267 A'  237 A"  268 A'  238 A"  239 A"                 
  6.339   6.346   6.355   6.368   6.377   6.385   6.393   6.397
269 A'  240 A"  270 A'  271 A'  241 A"  242 A"  272 A'  273 A'                 
  6.418   6.421   6.435   6.439   6.463   6.468   6.473   6.490
243 A"  274 A'  244 A"  275 A'  245 A"  276 A'  277 A'  278 A'                 
  6.493   6.506   6.517   6.549   6.550   6.593   6.604   6.613
246 A"  247 A"  279 A'  280 A'  248 A"  249 A"  250 A"  281 A'                 
  6.656   6.687   6.694   6.712   6.720   6.735   6.747   6.749
282 A'  283 A'  251 A"  252 A"  253 A"  254 A"  255 A"  284 A'                 
  6.789   6.835   6.849   6.861   6.891   6.893   6.928   6.928
256 A"  257 A"  285 A'  258 A"  259 A"  286 A'  260 A"  287 A'                 
  6.948   6.954   6.961   6.996   7.080   7.089   7.101   7.110
288 A'  261 A"  262 A"  289 A'  290 A'  291 A'  263 A"  292 A'                 
  7.141   7.141   7.198   7.212   7.216   7.259   7.275   7.292
264 A"  293 A'  294 A'  265 A"  266 A"  267 A"  268 A"  295 A'                 
  7.301   7.330   7.344   7.408   7.440   7.452   7.462   7.568
269 A"  270 A"  296 A'  297 A'  271 A"  272 A"  298 A'  273 A"                 
  7.582   7.609   7.615   7.623   7.644   7.715   7.729   7.736
299 A'  274 A"  300 A'  301 A'  302 A'  303 A'  275 A"  276 A"                 
  7.757   7.763   7.769   7.808   7.817   7.825   7.826   7.865
277 A"  304 A'  278 A"  279 A"  305 A'  280 A"  306 A'  281 A"                 
  7.894   7.909   7.945   7.991   8.002   8.012   8.045   8.049
282 A"  307 A'  308 A'  309 A'  283 A"  310 A'  284 A"  285 A"                 
  8.052   8.059   8.087   8.099   8.104   8.137   8.146   8.158
311 A'  312 A'  286 A"  313 A'  287 A"  288 A"  314 A'  315 A'                 
  8.184   8.203   8.220   8.237   8.251   8.253   8.255   8.274
316 A'  289 A"  290 A"  317 A'  318 A'  291 A"  319 A'  320 A'                 
  8.285   8.305   8.308   8.326   8.335   8.362   8.397   8.412
321 A'  292 A"  322 A'  323 A'  324 A'  293 A"  294 A"  295 A"                 
  8.418   8.431   8.439   8.453   8.478   8.491   8.522   8.555
296 A"  297 A"  298 A"  299 A"  300 A"  325 A'  326 A'  327 A'                 
  8.575   8.595   8.612   8.624   8.626   8.649   8.679   8.679
328 A'  329 A'  301 A"  330 A'  302 A"  331 A'  303 A"  332 A'                 
  8.685   8.705   8.721   8.772   8.788   8.796   8.803   8.808
304 A"  305 A"  306 A"  333 A'  334 A'  307 A"  308 A"  335 A'                 
  8.853   8.905   8.920   8.953   8.973   8.990   8.997   9.055
309 A"  336 A'  310 A"  311 A"  312 A"  337 A'  313 A"  338 A'                 
  9.076   9.105   9.129   9.134   9.160   9.262   9.311   9.344
314 A"  339 A'  315 A"  340 A'  316 A"  341 A'  317 A"  342 A'                 
  9.357   9.605   9.679   9.704   9.793   9.829   9.904  10.443
318 A"  343 A'  319 A"  320 A"  344 A'  321 A"  322 A"  345 A'                 
 10.479  11.119  11.166  11.167  11.190  11.204  11.214  11.316
346 A'  347 A'  348 A'  323 A"  349 A'  324 A"  350 A'  351 A'                 
 11.344  11.443  11.467  11.468  11.564  11.624  11.664  11.902
352 A'  325 A"  326 A"  353 A'  354 A'  327 A"  328 A"  355 A'                 
 11.940  11.974  12.032  12.100  12.149  12.150  12.225  12.241
356 A'  329 A"  330 A"  331 A"  357 A'  332 A"  358 A'  333 A"                 
 12.265  12.428  12.482  12.752  12.785  13.099  13.123  14.133
334 A"  359 A'  360 A'  361 A'  362 A'  335 A"  336 A"  363 A'                 
 14.189  27.665  27.760  28.323  28.383  28.408  28.541  28.654
364 A'  365 A'  366 A'  337 A"  367 A'  338 A"  368 A'  339 A"                 
 28.754  48.028  48.101 146.764 146.877 147.437 147.488 147.536
340 A"  369 A'  370 A'  371 A'  372 A'  341 A"  373 A'  342 A"                 
147.669 147.768 147.882 253.155 253.239
374 A'  343 A"  344 A"  375 A'  376 A'                                         
 --------------------------------------------------------------
 
          Ground-State Mulliken Net Atomic Charges

     Atom                 Charge (a.u.)    Spin (a.u.)
  --------------------------------------------------------
      1 O                    -0.208728      -0.030290
      2 C                     0.114081       0.297068
      3 H                     0.202145      -0.011499
      4 C                    -0.085276       0.032757
      5 H                     0.169662      -0.002784
      6 C                    -0.085279       0.032758
      7 H                     0.169662      -0.002784
      8 C                     0.114076       0.297071
      9 H                     0.202145      -0.011500
     10 O                    -0.252370      -0.018534
     11 C                     0.094884       0.189132
     12 H                     0.192955      -0.008218
     13 C                    -0.119785       0.030457
     14 H                     0.161889      -0.002505
     15 C                    -0.119786       0.030459
     16 H                     0.161888      -0.002505
     17 C                     0.094883       0.189136
     18 H                     0.192955      -0.008218
  --------------------------------------------------------
  Sum of atomic charges =     1.000000
  Sum of spin   charges =     1.000000

 -----------------------------------------------------------------
                    Cartesian Multipole Moments
 -----------------------------------------------------------------
    Charge (ESU x 10^10)
                 4.8032
    Dipole Moment (Debye)
         X       1.1856      Y       0.0379      Z       0.0000
       Tot       1.1862
    Quadrupole Moments (Debye-Ang)
        XX     -44.8142     XY      -3.1246     YY     -47.3918
        XZ       0.0000     YZ       0.0000     ZZ     -36.8055
    Octapole Moments (Debye-Ang^2)
       XXX       4.6321    XXY       0.2653    XYY       2.0097
       YYY      -0.5502    XXZ       0.0000    XYZ       0.0000
       YYZ       0.0000    XZZ       2.2096    YZZ       0.0039
       ZZZ       0.0000
    Hexadecapole Moments (Debye-Ang^3)
      XXXX    -862.7787   XXXY      18.4381   XXYY    -178.7452
      XYYY     -16.6321   YYYY    -298.2635   XXXZ       0.0000
      XXYZ       0.0000   XYYZ       0.0000   YYYZ       0.0000
      XXZZ    -156.3310   XYZZ      13.5561   YYZZ     -76.5874
      XZZZ       0.0000   YZZZ       0.0000   ZZZZ    -271.2724
 -----------------------------------------------------------------
 Total job time:  3260.56s(wall), 3260.40s(cpu) 
 Sun Sep  8 19:47:40 2013

        *************************************************************
        *                                                           *
        *  Thank you very much for using Q-Chem.  Have a nice day.  *
        *                                                           *
        *************************************************************


