   18
Geometry Step: 0
    O      1.17623700      0.00000000     -0.20000000      6.11301977
    C      0.36989100      1.08301700     -0.20000000      3.94839234
    H      0.86060500      2.04907700     -0.20000000      0.92506506
    C     -0.99103700     -0.69179300     -0.20000000      4.15776766
    H     -1.83867600     -1.36501600     -0.20000000      0.91249623
    C     -0.99103700      0.69179300     -0.20000000      4.15776766
    H     -1.83867600      1.36501600     -0.20000000      0.91249623
    C      0.36989100     -1.08301700     -0.20000000      3.94839234
    H      0.86060500     -2.04907700     -0.20000000      0.92506506
    O     -1.16125000      0.00000000      2.90000000      6.15490584
    C     -0.34735900      1.09489400      2.90000000      3.91468142
    H     -0.85045700      2.04977900      2.90000000      0.92649342
    C      0.95996400     -0.71789100      2.90000000      4.16865466
    H      1.81984000     -1.37324600      2.90000000      0.91248640
    C      0.95996400      0.71789100      2.90000000      4.16865466
    H      1.81984000      1.37324600      2.90000000      0.91248640
    C     -0.34735900     -1.09489400      2.90000000      3.91468142
    H     -0.85045700     -2.04977900      2.90000000      0.92649342
